# Number of cells = 1600
# CFL = 8.000000e-01
# a = 1.000000e+00
# L1 error = 2.629423e-03
# Root mean square error = 5.228718e-03
# Wall time = 4.149100e-02 seconds

VARIABLES = "x" "Numerical_solution" "Exact_solution" "Error"
ZONE I=1600, F=POINT
0.000000e+00 1.116863e-06 7.811489e-07 3.357138e-07
6.250000e-04 1.198265e-06 8.282363e-07 3.700288e-07
1.250000e-03 1.284170e-06 8.780550e-07 4.061149e-07
1.875000e-03 1.374765e-06 9.307566e-07 4.440084e-07
2.500000e-03 1.470248e-06 9.865009e-07 4.837471e-07
3.125000e-03 1.570828e-06 1.045456e-06 5.253720e-07
3.750000e-03 1.676726e-06 1.107800e-06 5.689268e-07
4.375000e-03 1.788177e-06 1.173718e-06 6.144591e-07
5.000000e-03 1.905427e-06 1.243406e-06 6.620211e-07
5.625000e-03 2.028741e-06 1.317071e-06 7.116694e-07
6.250000e-03 2.158397e-06 1.394930e-06 7.634665e-07
6.875000e-03 2.294692e-06 1.477212e-06 8.174803e-07
7.500000e-03 2.437942e-06 1.564156e-06 8.737854e-07
8.125000e-03 2.588479e-06 1.656015e-06 9.324633e-07
8.750000e-03 2.746658e-06 1.753055e-06 9.936027e-07
9.375000e-03 2.912855e-06 1.855555e-06 1.057300e-06
1.000000e-02 3.087467e-06 1.963808e-06 1.123659e-06
1.062500e-02 3.270916e-06 2.078123e-06 1.192793e-06
1.125000e-02 3.463647e-06 2.198824e-06 1.264823e-06
1.187500e-02 3.666131e-06 2.326251e-06 1.339879e-06
1.250000e-02 3.878864e-06 2.460763e-06 1.418101e-06
1.312500e-02 4.102371e-06 2.602735e-06 1.499636e-06
1.375000e-02 4.337205e-06 2.752562e-06 1.584643e-06
1.437500e-02 4.583948e-06 2.910658e-06 1.673290e-06
1.500000e-02 4.843211e-06 3.077459e-06 1.765752e-06
1.562500e-02 5.115639e-06 3.253422e-06 1.862217e-06
1.625000e-02 5.401908e-06 3.439026e-06 1.962882e-06
1.687500e-02 5.702728e-06 3.634775e-06 2.067953e-06
1.750000e-02 6.018843e-06 3.841197e-06 2.177647e-06
1.812500e-02 6.351036e-06 4.058846e-06 2.292190e-06
1.875000e-02 6.700125e-06 4.288304e-06 2.411820e-06
1.937500e-02 7.066966e-06 4.530182e-06 2.536784e-06
2.000000e-02 7.452458e-06 4.785117e-06 2.667340e-06
2.062500e-02 7.857540e-06 5.053783e-06 2.803757e-06
2.125000e-02 8.283195e-06 5.336881e-06 2.946314e-06
2.187500e-02 8.730451e-06 5.635150e-06 3.095301e-06
2.250000e-02 9.200382e-06 5.949362e-06 3.251020e-06
2.312500e-02 9.694112e-06 6.280328e-06 3.413785e-06
2.375000e-02 1.021282e-05 6.628896e-06 3.583919e-06
2.437500e-02 1.075772e-05 6.995956e-06 3.761762e-06
2.500000e-02 1.133010e-05 7.382441e-06 3.947662e-06
2.562500e-02 1.193131e-05 7.789325e-06 4.141982e-06
2.625000e-02 1.256273e-05 8.217632e-06 4.345097e-06
2.687500e-02 1.322583e-05 8.668431e-06 4.557396e-06
2.750000e-02 1.392213e-05 9.142844e-06 4.779285e-06
2.812500e-02 1.465322e-05 9.642044e-06 5.011179e-06
2.875000e-02 1.542077e-05 1.016726e-05 5.253514e-06
2.937500e-02 1.622651e-05 1.071977e-05 5.506736e-06
3.000000e-02 1.707225e-05 1.130094e-05 5.771313e-06
3.062500e-02 1.795987e-05 1.191215e-05 6.047724e-06
3.125000e-02 1.889136e-05 1.255489e-05 6.336470e-06
3.187500e-02 1.986876e-05 1.323069e-05 6.638068e-06
3.250000e-02 2.089422e-05 1.394117e-05 6.953052e-06
3.312500e-02 2.196999e-05 1.468801e-05 7.281979e-06
3.375000e-02 2.309839e-05 1.547297e-05 7.625422e-06
3.437500e-02 2.428186e-05 1.629789e-05 7.983978e-06
3.500000e-02 2.552295e-05 1.716469e-05 8.358263e-06
3.562500e-02 2.682430e-05 1.807539e-05 8.748915e-06
3.625000e-02 2.818867e-05 1.903208e-05 9.156596e-06
3.687500e-02 2.961895e-05 2.003696e-05 9.581992e-06
3.750000e-02 3.111813e-05 2.109232e-05 1.002581e-05
3.812500e-02 3.268935e-05 2.220056e-05 1.048879e-05
3.875000e-02 3.433585e-05 2.336418e-05 1.097168e-05
3.937500e-02 3.606106e-05 2.458578e-05 1.147528e-05
4.000000e-02 3.786849e-05 2.586810e-05 1.200039e-05
4.062500e-02 3.976184e-05 2.721398e-05 1.254786e-05
4.125000e-02 4.174495e-05 2.862639e-05 1.311857e-05
4.187500e-02 4.382183e-05 3.010842e-05 1.371340e-05
4.250000e-02 4.599663e-05 3.166332e-05 1.433331e-05
4.312500e-02 4.827369e-05 3.329446e-05 1.497924e-05
4.375000e-02 5.065754e-05 3.500535e-05 1.565219e-05
4.437500e-02 5.315286e-05 3.679966e-05 1.635320e-05
4.500000e-02 5.576455e-05 3.868122e-05 1.708333e-05
4.562500e-02 5.849770e-05 4.065403e-05 1.784367e-05
4.625000e-02 6.135761e-05 4.272224e-05 1.863537e-05
4.687500e-02 6.434979e-05 4.489018e-05 1.945961e-05
4.750000e-02 6.747996e-05 4.716238e-05 2.031758e-05
4.812500e-02 7.075409e-05 4.954354e-05 2.121055e-05
4.875000e-02 7.417837e-05 5.203857e-05 2.213980e-05
4.937500e-02 7.775925e-05 5.465258e-05 2.310667e-05
5.000000e-02 8.150343e-05 5.739089e-05 2.411254e-05
5.062500e-02 8.541787e-05 6.025904e-05 2.515883e-05
5.125000e-02 8.950981e-05 6.326281e-05 2.624700e-05
5.187500e-02 9.378677e-05 6.640820e-05 2.737856e-05
5.250000e-02 9.825655e-05 6.970148e-05 2.855507e-05
5.312500e-02 1.029273e-04 7.314914e-05 2.977815e-05
5.375000e-02 1.078074e-04 7.675796e-05 3.104943e-05
5.437500e-02 1.129056e-04 8.053499e-05 3.237063e-05
5.500000e-02 1.182311e-04 8.448756e-05 3.374351e-05
5.562500e-02 1.237932e-04 8.862330e-05 3.516988e-05
5.625000e-02 1.296018e-04 9.295015e-05 3.665161e-05
5.687500e-02 1.356669e-04 9.747634e-05 3.819061e-05
5.750000e-02 1.419993e-04 1.022105e-04 3.978886e-05
5.812500e-02 1.486098e-04 1.071614e-04 4.144840e-05
5.875000e-02 1.555098e-04 1.123385e-04 4.317132e-05
5.937500e-02 1.627111e-04 1.177513e-04 4.495978e-05
6.000000e-02 1.702258e-04 1.234098e-04 4.681599e-05
6.062500e-02 1.780667e-04 1.293245e-04 4.874224e-05
6.125000e-02 1.862469e-04 1.355061e-04 5.074086e-05
6.187500e-02 1.947801e-04 1.419658e-04 5.281427e-05
6.250000e-02 2.036803e-04 1.487153e-04 5.496494e-05
6.312500e-02 2.129622e-04 1.557667e-04 5.719542e-05
6.375000e-02 2.226409e-04 1.631326e-04 5.950832e-05
6.437500e-02 2.327322e-04 1.708259e-04 6.190633e-05
6.500000e-02 2.432524e-04 1.788602e-04 6.439220e-05
6.562500e-02 2.542182e-04 1.872495e-04 6.696876e-05
6.625000e-02 2.656472e-04 1.960083e-04 6.963892e-05
6.687500e-02 2.775575e-04 2.051518e-04 7.240566e-05
6.750000e-02 2.899677e-04 2.146957e-04 7.527204e-05
6.812500e-02 3.028973e-04 2.246561e-04 7.824119e-05
6.875000e-02 3.163662e-04 2.350499e-04 8.131634e-05
6.937500e-02 3.303953e-04 2.458945e-04 8.450077e-05
7.000000e-02 3.450060e-04 2.572081e-04 8.779788e-05
7.062500e-02 3.602205e-04 2.690094e-04 9.121112e-05
7.125000e-02 3.760619e-04 2.813178e-04 9.474404e-05
7.187500e-02 3.925538e-04 2.941535e-04 9.840028e-05
7.250000e-02 4.097209e-04 3.075373e-04 1.021836e-04
7.312500e-02 4.275885e-04 3.214908e-04 1.060977e-04
7.375000e-02 4.461830e-04 3.360364e-04 1.101466e-04
7.437500e-02 4.655314e-04 3.511972e-04 1.143342e-04
7.500000e-02 4.856619e-04 3.669972e-04 1.186647e-04
7.562500e-02 5.066034e-04 3.834613e-04 1.231421e-04
7.625000e-02 5.283858e-04 4.006150e-04 1.277708e-04
7.687500e-02 5.510402e-04 4.184850e-04 1.325552e-04
7.750000e-02 5.745984e-04 4.370987e-04 1.374997e-04
7.812500e-02 5.990934e-04 4.564846e-04 1.426088e-04
7.875000e-02 6.245593e-04 4.766721e-04 1.478872e-04
7.937500e-02 6.510314e-04 4.976917e-04 1.533397e-04
8.000000e-02 6.785458e-04 5.195747e-04 1.589711e-04
8.062500e-02 7.071400e-04 5.423536e-04 1.647864e-04
8.125000e-02 7.368527e-04 5.660622e-04 1.707906e-04
8.187500e-02 7.677238e-04 5.907350e-04 1.769888e-04
8.250000e-02 7.997944e-04 6.164079e-04 1.833864e-04
8.312500e-02 8.331069e-04 6.431181e-04 1.899887e-04
8.375000e-02 8.677050e-04 6.709038e-04 1.968012e-04
8.437500e-02 9.036339e-04 6.998046e-04 2.038293e-04
8.500000e-02 9.409400e-04 7.298611e-04 2.110789e-04
8.562500e-02 9.796714e-04 7.611158e-04 2.185556e-04
8.625000e-02 1.019877e-03 7.936119e-04 2.262654e-04
8.687500e-02 1.061609e-03 8.273945e-04 2.342141e-04
8.750000e-02 1.104918e-03 8.625098e-04 2.424080e-04
8.812500e-02 1.149859e-03 8.990057e-04 2.508531e-04
8.875000e-02 1.196487e-03 9.369315e-04 2.595558e-04
8.937500e-02 1.244861e-03 9.763381e-04 2.685225e-04
9.000000e-02 1.295038e-03 1.017278e-03 2.777597e-04
9.062500e-02 1.347079e-03 1.059805e-03 2.872739e-04
9.125000e-02 1.401047e-03 1.103975e-03 2.970719e-04
9.187500e-02 1.457006e-03 1.149846e-03 3.071604e-04
9.250000e-02 1.515023e-03 1.197476e-03 3.175464e-04
9.312500e-02 1.575164e-03 1.246927e-03 3.282369e-04
9.375000e-02 1.637501e-03 1.298262e-03 3.392389e-04
9.437500e-02 1.702105e-03 1.351546e-03 3.505597e-04
9.500000e-02 1.769051e-03 1.406844e-03 3.622066e-04
9.562500e-02 1.838413e-03 1.464226e-03 3.741868e-04
9.625000e-02 1.910271e-03 1.523763e-03 3.865080e-04
9.687500e-02 1.984705e-03 1.585527e-03 3.991776e-04
9.750000e-02 2.061797e-03 1.649593e-03 4.122034e-04
9.812500e-02 2.141632e-03 1.716039e-03 4.255930e-04
9.875000e-02 2.224297e-03 1.784942e-03 4.393543e-04
9.937500e-02 2.309881e-03 1.856386e-03 4.534952e-04
1.000000e-01 2.398478e-03 1.930454e-03 4.680236e-04
1.006250e-01 2.490180e-03 2.007232e-03 4.829477e-04
1.012500e-01 2.585085e-03 2.086809e-03 4.982756e-04
1.018750e-01 2.683291e-03 2.169276e-03 5.140154e-04
1.025000e-01 2.784902e-03 2.254727e-03 5.301755e-04
1.031250e-01 2.890021e-03 2.343257e-03 5.467641e-04
1.037500e-01 2.998756e-03 2.434967e-03 5.637897e-04
1.043750e-01 3.111217e-03 2.529956e-03 5.812608e-04
1.050000e-01 3.227517e-03 2.628331e-03 5.991857e-04
1.056250e-01 3.347771e-03 2.730197e-03 6.175732e-04
1.062500e-01 3.472097e-03 2.835666e-03 6.364316e-04
1.068750e-01 3.600619e-03 2.944849e-03 6.557698e-04
1.075000e-01 3.733459e-03 3.057863e-03 6.755964e-04
1.081250e-01 3.870746e-03 3.174826e-03 6.959200e-04
1.087500e-01 4.012610e-03 3.295861e-03 7.167494e-04
1.093750e-01 4.159185e-03 3.421092e-03 7.380932e-04
1.100000e-01 4.310609e-03 3.550649e-03 7.599604e-04
1.106250e-01 4.467021e-03 3.684661e-03 7.823595e-04
1.112500e-01 4.628565e-03 3.823265e-03 8.052994e-04
1.118750e-01 4.795388e-03 3.966599e-03 8.287888e-04
1.125000e-01 4.967641e-03 4.114804e-03 8.528365e-04
1.131250e-01 5.145476e-03 4.268025e-03 8.774511e-04
1.137500e-01 5.329053e-03 4.426412e-03 9.026414e-04
1.143750e-01 5.518531e-03 4.590115e-03 9.284159e-04
1.150000e-01 5.714076e-03 4.759293e-03 9.547834e-04
1.156250e-01 5.915855e-03 4.934103e-03 9.817524e-04
1.162500e-01 6.124040e-03 5.114709e-03 1.009331e-03
1.168750e-01 6.338808e-03 5.301279e-03 1.037529e-03
1.175000e-01 6.560337e-03 5.493984e-03 1.066353e-03
1.181250e-01 6.788811e-03 5.692999e-03 1.095812e-03
1.187500e-01 7.024418e-03 5.898503e-03 1.125914e-03
1.193750e-01 7.267348e-03 6.110680e-03 1.156668e-03
1.200000e-01 7.517797e-03 6.329715e-03 1.188081e-03
1.206250e-01 7.775964e-03 6.555802e-03 1.220162e-03
1.212500e-01 8.042052e-03 6.789136e-03 1.252917e-03
1.218750e-01 8.316270e-03 7.029916e-03 1.286354e-03
1.225000e-01 8.598829e-03 7.278347e-03 1.320482e-03
1.231250e-01 8.889944e-03 7.534637e-03 1.355307e-03
1.237500e-01 9.189836e-03 7.799000e-03 1.390836e-03
1.243750e-01 9.498729e-03 8.071653e-03 1.427076e-03
1.250000e-01 9.816853e-03 8.352819e-03 1.464034e-03
1.256250e-01 1.014444e-02 8.642723e-03 1.501717e-03
1.262500e-01 1.048173e-02 8.941597e-03 1.540130e-03
1.268750e-01 1.082896e-02 9.249678e-03 1.579280e-03
1.275000e-01 1.118638e-02 9.567206e-03 1.619173e-03
1.281250e-01 1.155424e-02 9.894426e-03 1.659813e-03
1.287500e-01 1.193280e-02 1.023159e-02 1.701208e-03
1.293750e-01 1.232231e-02 1.057895e-02 1.743360e-03
1.300000e-01 1.272304e-02 1.093677e-02 1.786276e-03
1.306250e-01 1.313527e-02 1.130531e-02 1.829960e-03
1.312500e-01 1.355926e-02 1.168484e-02 1.874415e-03
1.318750e-01 1.399529e-02 1.207564e-02 1.919645e-03
1.325000e-01 1.444364e-02 1.247799e-02 1.965655e-03
1.331250e-01 1.490461e-02 1.289217e-02 2.012446e-03
1.337500e-01 1.537849e-02 1.331847e-02 2.060021e-03
1.343750e-01 1.586557e-02 1.375719e-02 2.108384e-03
1.350000e-01 1.636616e-02 1.420862e-02 2.157535e-03
1.356250e-01 1.688056e-02 1.467308e-02 2.207477e-03
1.362500e-01 1.740908e-02 1.515087e-02 2.258209e-03
1.368750e-01 1.795204e-02 1.564231e-02 2.309733e-03
1.375000e-01 1.850977e-02 1.614772e-02 2.362049e-03
1.381250e-01 1.908258e-02 1.666742e-02 2.415157e-03
1.387500e-01 1.967081e-02 1.720175e-02 2.469055e-03
1.393750e-01 2.027478e-02 1.775104e-02 2.523742e-03
1.400000e-01 2.089486e-02 1.831564e-02 2.579217e-03
1.406250e-01 2.153136e-02 1.889589e-02 2.635477e-03
1.412500e-01 2.218465e-02 1.949214e-02 2.692518e-03
1.418750e-01 2.285508e-02 2.010475e-02 2.750338e-03
1.425000e-01 2.354301e-02 2.073408e-02 2.808932e-03
1.431250e-01 2.424880e-02 2.138050e-02 2.868295e-03
1.437500e-01 2.497281e-02 2.204439e-02 2.928423e-03
1.443750e-01 2.571542e-02 2.272611e-02 2.989309e-03
1.450000e-01 2.647701e-02 2.342606e-02 3.050946e-03
1.456250e-01 2.725794e-02 2.414462e-02 3.113328e-03
1.462500e-01 2.805862e-02 2.488218e-02 3.176446e-03
1.468750e-01 2.887943e-02 2.563914e-02 3.240292e-03
1.475000e-01 2.972076e-02 2.641590e-02 3.304856e-03
1.481250e-01 3.058301e-02 2.721288e-02 3.370128e-03
1.487500e-01 3.146658e-02 2.803048e-02 3.436098e-03
1.493750e-01 3.237187e-02 2.886912e-02 3.502754e-03
1.500000e-01 3.329930e-02 2.972922e-02 3.570084e-03
1.506250e-01 3.424928e-02 3.061121e-02 3.638075e-03
1.512500e-01 3.522223e-02 3.151551e-02 3.706713e-03
1.518750e-01 3.621856e-02 3.244257e-02 3.775983e-03
1.525000e-01 3.723870e-02 3.339283e-02 3.845869e-03
1.531250e-01 3.828308e-02 3.436672e-02 3.916357e-03
1.537500e-01 3.935213e-02 3.536470e-02 3.987428e-03
1.543750e-01 4.044629e-02 3.638722e-02 4.059065e-03
1.550000e-01 4.156598e-02 3.743474e-02 4.131249e-03
1.556250e-01 4.271166e-02 3.850770e-02 4.203960e-03
1.562500e-01 4.388377e-02 3.960659e-02 4.277178e-03
1.568750e-01 4.508274e-02 4.073186e-02 4.350882e-03
1.575000e-01 4.630904e-02 4.188399e-02 4.425049e-03
1.581250e-01 4.756311e-02 4.306345e-02 4.499656e-03
1.587500e-01 4.884540e-02 4.427073e-02 4.574679e-03
1.593750e-01 5.015638e-02 4.550629e-02 4.650093e-03
1.600000e-01 5.149649e-02 4.677062e-02 4.725872e-03
1.606250e-01 5.286621e-02 4.806422e-02 4.801989e-03
1.612500e-01 5.426598e-02 4.938756e-02 4.878417e-03
1.618750e-01 5.569628e-02 5.074115e-02 4.955127e-03
1.625000e-01 5.715756e-02 5.212547e-02 5.032089e-03
1.631250e-01 5.865030e-02 5.354102e-02 5.109272e-03
1.637500e-01 6.017495e-02 5.498830e-02 5.186645e-03
1.643750e-01 6.173199e-02 5.646781e-02 5.264176e-03
1.650000e-01 6.332188e-02 5.798005e-02 5.341831e-03
1.656250e-01 6.494510e-02 5.952552e-02 5.419575e-03
1.662500e-01 6.660210e-02 6.110473e-02 5.497374e-03
1.668750e-01 6.829337e-02 6.271817e-02 5.575191e-03
1.675000e-01 7.001935e-02 6.436637e-02 5.652988e-03
1.681250e-01 7.178053e-02 6.604981e-02 5.730728e-03
1.687500e-01 7.357737e-02 6.776900e-02 5.808370e-03
1.693750e-01 7.541034e-02 6.952446e-02 5.885876e-03
1.700000e-01 7.727989e-02 7.131668e-02 5.963205e-03
1.706250e-01 7.918649e-02 7.314618e-02 6.040313e-03
1.712500e-01 8.113060e-02 7.501345e-02 6.117158e-03
1.718750e-01 8.311269e-02 7.691899e-02 6.193696e-03
1.725000e-01 8.513320e-02 7.886332e-02 6.269884e-03
1.731250e-01 8.719260e-02 8.084692e-02 6.345674e-03
1.737500e-01 8.929132e-02 8.287030e-02 6.421020e-03
1.743750e-01 9.142983e-02 8.493395e-02 6.495876e-03
1.750000e-01 9.360856e-02 8.703837e-02 6.570192e-03
1.756250e-01 9.582796e-02 8.918404e-02 6.643920e-03
1.762500e-01 9.808845e-02 9.137145e-02 6.717010e-03
1.768750e-01 1.003905e-01 9.360108e-02 6.789410e-03
1.775000e-01 1.027345e-01 9.587341e-02 6.861070e-03
1.781250e-01 1.051209e-01 9.818893e-02 6.931937e-03
1.787500e-01 1.075500e-01 1.005481e-01 7.001958e-03
1.793750e-01 1.100224e-01 1.029514e-01 7.071079e-03
1.800000e-01 1.125385e-01 1.053992e-01 7.139245e-03
1.806250e-01 1.150985e-01 1.078921e-01 7.206402e-03
1.812500e-01 1.177030e-01 1.104305e-01 7.272493e-03
1.818750e-01 1.203522e-01 1.130148e-01 7.337461e-03
1.825000e-01 1.230467e-01 1.156454e-01 7.401251e-03
1.831250e-01 1.257867e-01 1.183228e-01 7.463802e-03
1.837500e-01 1.285726e-01 1.210475e-01 7.525059e-03
1.843750e-01 1.314047e-01 1.238198e-01 7.584960e-03
1.850000e-01 1.342835e-01 1.266401e-01 7.643448e-03
1.856250e-01 1.372093e-01 1.295088e-01 7.700462e-03
1.862500e-01 1.401823e-01 1.324264e-01 7.755942e-03
1.868750e-01 1.432029e-01 1.353931e-01 7.809827e-03
1.875000e-01 1.462715e-01 1.384094e-01 7.862056e-03
1.881250e-01 1.493882e-01 1.414757e-01 7.912567e-03
1.887500e-01 1.525535e-01 1.445922e-01 7.961299e-03
1.893750e-01 1.557675e-01 1.477593e-01 8.008190e-03
1.900000e-01 1.590306e-01 1.509774e-01 8.053178e-03
1.906250e-01 1.623430e-01 1.542468e-01 8.096200e-03
1.912500e-01 1.657048e-01 1.575676e-01 8.137193e-03
1.918750e-01 1.691165e-01 1.609404e-01 8.176096e-03
1.925000e-01 1.725781e-01 1.643653e-01 8.212844e-03
1.931250e-01 1.760899e-01 1.678425e-01 8.247377e-03
1.937500e-01 1.796521e-01 1.713725e-01 8.279630e-03
1.943750e-01 1.832648e-01 1.749552e-01 8.309542e-03
1.950000e-01 1.869282e-01 1.785911e-01 8.337050e-03
1.956250e-01 1.906424e-01 1.822803e-01 8.362092e-03
1.962500e-01 1.944076e-01 1.860230e-01 8.384605e-03
1.968750e-01 1.982239e-01 1.898194e-01 8.404528e-03
1.975000e-01 2.020914e-01 1.936696e-01 8.421800e-03
1.981250e-01 2.060102e-01 1.975738e-01 8.436359e-03
1.987500e-01 2.099802e-01 2.015321e-01 8.448145e-03
1.993750e-01 2.140017e-01 2.055446e-01 8.457097e-03
2.000000e-01 2.180745e-01 2.096114e-01 8.463156e-03
2.006250e-01 2.221988e-01 2.137326e-01 8.466264e-03
2.012500e-01 2.263745e-01 2.179081e-01 8.466361e-03
2.018750e-01 2.306016e-01 2.221382e-01 8.463390e-03
2.025000e-01 2.348800e-01 2.264227e-01 8.457294e-03
2.031250e-01 2.392097e-01 2.307617e-01 8.448017e-03
2.037500e-01 2.435907e-01 2.351552e-01 8.435503e-03
2.043750e-01 2.480227e-01 2.396030e-01 8.419699e-03
2.050000e-01 2.525057e-01 2.441051e-01 8.400551e-03
2.056250e-01 2.570395e-01 2.486615e-01 8.378006e-03
2.062500e-01 2.616241e-01 2.532721e-01 8.352014e-03
2.068750e-01 2.662591e-01 2.579366e-01 8.322524e-03
2.075000e-01 2.709444e-01 2.626550e-01 8.289487e-03
2.081250e-01 2.756798e-01 2.674270e-01 8.252857e-03
2.087500e-01 2.804651e-01 2.722525e-01 8.212586e-03
2.093750e-01 2.852999e-01 2.771312e-01 8.168629e-03
2.100000e-01 2.901839e-01 2.820630e-01 8.120944e-03
2.106250e-01 2.951169e-01 2.870474e-01 8.069488e-03
2.112500e-01 3.000985e-01 2.920843e-01 8.014221e-03
2.118750e-01 3.051284e-01 2.971733e-01 7.955103e-03
2.125000e-01 3.102061e-01 3.023140e-01 7.892099e-03
2.131250e-01 3.153313e-01 3.075061e-01 7.825171e-03
2.137500e-01 3.205035e-01 3.127493e-01 7.754287e-03
2.143750e-01 3.257224e-01 3.180429e-01 7.679415e-03
2.150000e-01 3.309873e-01 3.233868e-01 7.600525e-03
2.156250e-01 3.362978e-01 3.287802e-01 7.517588e-03
2.162500e-01 3.416534e-01 3.342229e-01 7.430579e-03
2.168750e-01 3.470536e-01 3.397141e-01 7.339473e-03
2.175000e-01 3.524977e-01 3.452534e-01 7.244249e-03
2.181250e-01 3.579851e-01 3.508402e-01 7.144887e-03
2.187500e-01 3.635153e-01 3.564739e-01 7.041368e-03
2.193750e-01 3.690876e-01 3.621539e-01 6.933679e-03
2.200000e-01 3.747012e-01 3.678794e-01 6.821805e-03
2.206250e-01 3.803556e-01 3.736499e-01 6.705735e-03
2.212500e-01 3.860500e-01 3.794645e-01 6.585462e-03
2.218750e-01 3.917836e-01 3.853226e-01 6.460980e-03
2.225000e-01 3.975557e-01 3.912234e-01 6.332283e-03
2.231250e-01 4.033654e-01 3.971660e-01 6.199373e-03
2.237500e-01 4.092120e-01 4.031497e-01 6.062249e-03
2.243750e-01 4.150945e-01 4.091736e-01 5.920916e-03
2.250000e-01 4.210122e-01 4.152368e-01 5.775380e-03
2.256250e-01 4.269641e-01 4.213385e-01 5.625651e-03
2.262500e-01 4.329493e-01 4.274775e-01 5.471741e-03
2.268750e-01 4.389668e-01 4.336532e-01 5.313664e-03
2.275000e-01 4.450157e-01 4.398643e-01 5.151437e-03
2.281250e-01 4.510950e-01 4.461099e-01 4.985080e-03
2.287500e-01 4.572036e-01 4.523890e-01 4.814617e-03
2.293750e-01 4.633405e-01 4.587004e-01 4.640072e-03
2.300000e-01 4.695047e-01 4.650432e-01 4.461474e-03
2.306250e-01 4.756949e-01 4.714161e-01 4.278855e-03
2.312500e-01 4.819102e-01 4.778180e-01 4.092248e-03
2.318750e-01 4.881494e-01 4.842477e-01 3.901690e-03
2.325000e-01 4.944113e-01 4.907041e-01 3.707222e-03
2.331250e-01 5.006947e-01 4.971858e-01 3.508885e-03
2.337500e-01 5.069984e-01 5.036916e-01 3.306726e-03
2.343750e-01 5.133211e-01 5.102203e-01 3.100792e-03
2.350000e-01 5.196617e-01 5.167706e-01 2.891136e-03
2.356250e-01 5.260188e-01 5.233410e-01 2.677811e-03
2.362500e-01 5.323912e-01 5.299303e-01 2.460875e-03
2.368750e-01 5.387775e-01 5.365371e-01 2.240387e-03
2.375000e-01 5.451763e-01 5.431599e-01 2.016410e-03
2.381250e-01 5.515863e-01 5.497973e-01 1.789011e-03
2.387500e-01 5.580062e-01 5.564480e-01 1.558257e-03
2.393750e-01 5.644345e-01 5.631103e-01 1.324221e-03
2.400000e-01 5.708698e-01 5.697828e-01 1.086976e-03
2.406250e-01 5.773107e-01 5.764641e-01 8.466000e-04
2.412500e-01 5.837556e-01 5.831524e-01 6.031720e-04
2.418750e-01 5.902032e-01 5.898464e-01 3.567751e-04
2.425000e-01 5.966519e-01 5.965444e-01 1.074944e-04
2.431250e-01 6.031003e-01 6.032448e-01 -1.445820e-04
2.437500e-01 6.095467e-01 6.099461e-01 -3.993635e-04
2.443750e-01 6.159897e-01 6.166464e-01 -6.567568e-04
2.450000e-01 6.224276e-01 6.233443e-01 -9.166661e-04
2.456250e-01 6.288590e-01 6.300380e-01 -1.178993e-03
2.462500e-01 6.352823e-01 6.367259e-01 -1.443636e-03
2.468750e-01 6.416957e-01 6.434062e-01 -1.710493e-03
2.475000e-01 6.480978e-01 6.500773e-01 -1.979457e-03
2.481250e-01 6.544869e-01 6.567373e-01 -2.250421e-03
2.487500e-01 6.608613e-01 6.633846e-01 -2.523274e-03
2.493750e-01 6.672195e-01 6.700174e-01 -2.797903e-03
2.500000e-01 6.735597e-01 6.766338e-01 -3.074194e-03
2.506250e-01 6.798802e-01 6.832323e-01 -3.352030e-03
2.512500e-01 6.861795e-01 6.898108e-01 -3.631291e-03
2.518750e-01 6.924559e-01 6.963677e-01 -3.911857e-03
2.525000e-01 6.987075e-01 7.029011e-01 -4.193605e-03
2.531250e-01 7.049328e-01 7.094092e-01 -4.476411e-03
2.537500e-01 7.111300e-01 7.158902e-01 -4.760146e-03
2.543750e-01 7.172975e-01 7.223422e-01 -5.044685e-03
2.550000e-01 7.234334e-01 7.287633e-01 -5.329896e-03
2.556250e-01 7.295362e-01 7.351518e-01 -5.615648e-03
2.562500e-01 7.356040e-01 7.415058e-01 -5.901809e-03
2.568750e-01 7.416352e-01 7.478234e-01 -6.188244e-03
2.575000e-01 7.476280e-01 7.541028e-01 -6.474818e-03
2.581250e-01 7.535807e-01 7.603421e-01 -6.761394e-03
2.587500e-01 7.594916e-01 7.665394e-01 -7.047834e-03
2.593750e-01 7.653589e-01 7.726929e-01 -7.334000e-03
2.600000e-01 7.711810e-01 7.788008e-01 -7.619751e-03
2.606250e-01 7.769561e-01 7.848611e-01 -7.904947e-03
2.612500e-01 7.826826e-01 7.908720e-01 -8.189447e-03
2.618750e-01 7.883586e-01 7.968317e-01 -8.473109e-03
2.625000e-01 7.939825e-01 8.027383e-01 -8.755789e-03
2.631250e-01 7.995526e-01 8.085899e-01 -9.037346e-03
2.637500e-01 8.050672e-01 8.143848e-01 -9.317635e-03
2.643750e-01 8.105246e-01 8.201211e-01 -9.596513e-03
2.650000e-01 8.159232e-01 8.257970e-01 -9.873837e-03
2.656250e-01 8.212613e-01 8.314107e-01 -1.014946e-02
2.662500e-01 8.265372e-01 8.369604e-01 -1.042324e-02
2.668750e-01 8.317492e-01 8.424443e-01 -1.069504e-02
2.675000e-01 8.368959e-01 8.478606e-01 -1.096471e-02
2.681250e-01 8.419754e-01 8.532076e-01 -1.123210e-02
2.687500e-01 8.469864e-01 8.584834e-01 -1.149708e-02
2.693750e-01 8.519270e-01 8.636865e-01 -1.175951e-02
2.700000e-01 8.567958e-01 8.688151e-01 -1.201923e-02
2.706250e-01 8.615913e-01 8.738674e-01 -1.227612e-02
2.712500e-01 8.663118e-01 8.788418e-01 -1.253003e-02
2.718750e-01 8.709558e-01 8.837366e-01 -1.278082e-02
2.725000e-01 8.755219e-01 8.885503e-01 -1.302836e-02
2.731250e-01 8.800086e-01 8.932811e-01 -1.327251e-02
2.737500e-01 8.844143e-01 8.979274e-01 -1.351313e-02
2.743750e-01 8.887377e-01 9.024878e-01 -1.375010e-02
2.750000e-01 8.929773e-01 9.069606e-01 -1.398327e-02
2.756250e-01 8.971318e-01 9.113443e-01 -1.421253e-02
2.762500e-01 9.011997e-01 9.156375e-01 -1.443773e-02
2.768750e-01 9.051798e-01 9.198385e-01 -1.465876e-02
2.775000e-01 9.090706e-01 9.239461e-01 -1.487548e-02
2.781250e-01 9.128709e-01 9.279587e-01 -1.508779e-02
2.787500e-01 9.165794e-01 9.318750e-01 -1.529555e-02
2.793750e-01 9.201949e-01 9.356935e-01 -1.549864e-02
2.800000e-01 9.237161e-01 9.394131e-01 -1.569696e-02
2.806250e-01 9.271419e-01 9.430323e-01 -1.589038e-02
2.812500e-01 9.304711e-01 9.465499e-01 -1.607880e-02
2.818750e-01 9.337025e-01 9.499646e-01 -1.626211e-02
2.825000e-01 9.368351e-01 9.532753e-01 -1.644019e-02
2.831250e-01 9.398678e-01 9.564807e-01 -1.661296e-02
2.837500e-01 9.427995e-01 9.595798e-01 -1.678030e-02
2.843750e-01 9.456293e-01 9.625715e-01 -1.694213e-02
2.850000e-01 9.483562e-01 9.654546e-01 -1.709834e-02
2.856250e-01 9.509792e-01 9.682281e-01 -1.724884e-02
2.862500e-01 9.534975e-01 9.708911e-01 -1.739355e-02
2.868750e-01 9.559101e-01 9.734425e-01 -1.753238e-02
2.875000e-01 9.582163e-01 9.758816e-01 -1.766526e-02
2.881250e-01 9.604152e-01 9.782073e-01 -1.779209e-02
2.887500e-01 9.625061e-01 9.804189e-01 -1.791281e-02
2.893750e-01 9.644882e-01 9.825155e-01 -1.802734e-02
2.900000e-01 9.663608e-01 9.844964e-01 -1.813563e-02
2.906250e-01 9.681234e-01 9.863610e-01 -1.823759e-02
2.912500e-01 9.697752e-01 9.881084e-01 -1.833318e-02
2.918750e-01 9.713157e-01 9.897381e-01 -1.842234e-02
2.925000e-01 9.727444e-01 9.912494e-01 -1.850501e-02
2.931250e-01 9.740608e-01 9.926420e-01 -1.858114e-02
2.937500e-01 9.752644e-01 9.939151e-01 -1.865069e-02
2.943750e-01 9.763547e-01 9.950684e-01 -1.871362e-02
2.950000e-01 9.773315e-01 9.961014e-01 -1.876988e-02
2.956250e-01 9.781943e-01 9.970137e-01 -1.881946e-02
2.962500e-01 9.789428e-01 9.978051e-01 -1.886231e-02
2.968750e-01 9.795769e-01 9.984753e-01 -1.889841e-02
2.975000e-01 9.800962e-01 9.990239e-01 -1.892773e-02
2.981250e-01 9.805006e-01 9.994508e-01 -1.895027e-02
2.987500e-01 9.807899e-01 9.997559e-01 -1.896601e-02
2.993750e-01 9.809640e-01 9.999390e-01 -1.897494e-02
3.000000e-01 9.810230e-01 1.000000e+00 -1.897705e-02
3.006250e-01 9.809666e-01 9.999390e-01 -1.897234e-02
3.012500e-01 9.807951e-01 9.997559e-01 -1.896081e-02
3.018750e-01 9.805084e-01 9.994508e-01 -1.894248e-02
3.025000e-01 9.801066e-01 9.990239e-01 -1.891735e-02
3.031250e-01 9.795898e-01 9.984753e-01 -1.888544e-02
3.037500e-01 9.789584e-01 9.978051e-01 -1.884676e-02
3.043750e-01 9.782124e-01 9.970137e-01 -1.880135e-02
3.050000e-01 9.773522e-01 9.961014e-01 -1.874922e-02
3.056250e-01 9.763779e-01 9.950684e-01 -1.869040e-02
3.062500e-01 9.752901e-01 9.939151e-01 -1.862494e-02
3.068750e-01 9.740891e-01 9.926420e-01 -1.855288e-02
3.075000e-01 9.727752e-01 9.912494e-01 -1.847425e-02
3.081250e-01 9.713490e-01 9.897381e-01 -1.838910e-02
3.087500e-01 9.698109e-01 9.881084e-01 -1.829748e-02
3.093750e-01 9.681615e-01 9.863610e-01 -1.819945e-02
3.100000e-01 9.664014e-01 9.844964e-01 -1.809506e-02
3.106250e-01 9.645311e-01 9.825155e-01 -1.798438e-02
3.112500e-01 9.625514e-01 9.804189e-01 -1.786748e-02
3.118750e-01 9.604629e-01 9.782073e-01 -1.774441e-02
3.125000e-01 9.582663e-01 9.758816e-01 -1.761526e-02
3.131250e-01 9.559624e-01 9.734425e-01 -1.748010e-02
3.137500e-01 9.535520e-01 9.708911e-01 -1.733901e-02
3.143750e-01 9.510360e-01 9.682281e-01 -1.719208e-02
3.150000e-01 9.484152e-01 9.654546e-01 -1.703938e-02
3.156250e-01 9.456904e-01 9.625715e-01 -1.688101e-02
3.162500e-01 9.428628e-01 9.595798e-01 -1.671706e-02
3.168750e-01 9.399331e-01 9.564807e-01 -1.654763e-02
3.175000e-01 9.369025e-01 9.532753e-01 -1.637281e-02
3.181250e-01 9.337719e-01 9.499646e-01 -1.619271e-02
3.187500e-01 9.305424e-01 9.465499e-01 -1.600743e-02
3.193750e-01 9.272152e-01 9.430323e-01 -1.581708e-02
3.200000e-01 9.237913e-01 9.394131e-01 -1.562176e-02
3.206250e-01 9.202719e-01 9.356935e-01 -1.542160e-02
3.212500e-01 9.166583e-01 9.318750e-01 -1.521670e-02
3.218750e-01 9.129515e-01 9.279587e-01 -1.500718e-02
3.225000e-01 9.091529e-01 9.239461e-01 -1.479316e-02
3.231250e-01 9.052638e-01 9.198385e-01 -1.457476e-02
3.237500e-01 9.012854e-01 9.156375e-01 -1.435211e-02
3.243750e-01 8.972190e-01 9.113443e-01 -1.412532e-02
3.250000e-01 8.930661e-01 9.069606e-01 -1.389454e-02
3.256250e-01 8.888279e-01 9.024878e-01 -1.365989e-02
3.262500e-01 8.845059e-01 8.979274e-01 -1.342149e-02
3.268750e-01 8.801016e-01 8.932811e-01 -1.317949e-02
3.275000e-01 8.756163e-01 8.885503e-01 -1.293401e-02
3.281250e-01 8.710514e-01 8.837366e-01 -1.268519e-02
3.287500e-01 8.664086e-01 8.788418e-01 -1.243317e-02
3.293750e-01 8.616893e-01 8.738674e-01 -1.217809e-02
3.300000e-01 8.568950e-01 8.688151e-01 -1.192008e-02
3.306250e-01 8.520272e-01 8.636865e-01 -1.165928e-02
3.312500e-01 8.470876e-01 8.584834e-01 -1.139584e-02
3.318750e-01 8.420777e-01 8.532076e-01 -1.112989e-02
3.325000e-01 8.369990e-01 8.478606e-01 -1.086159e-02
3.331250e-01 8.318532e-01 8.424443e-01 -1.059106e-02
3.337500e-01 8.266419e-01 8.369604e-01 -1.031847e-02
3.343750e-01 8.213668e-01 8.314107e-01 -1.004394e-02
3.350000e-01 8.160294e-01 8.257970e-01 -9.767616e-03
3.356250e-01 8.106315e-01 8.201211e-01 -9.489653e-03
3.362500e-01 8.051746e-01 8.143848e-01 -9.210189e-03
3.368750e-01 7.996606e-01 8.085899e-01 -8.929369e-03
3.375000e-01 7.940909e-01 8.027383e-01 -8.647335e-03
3.381250e-01 7.884674e-01 7.968317e-01 -8.364232e-03
3.387500e-01 7.827918e-01 7.908720e-01 -8.080202e-03
3.393750e-01 7.770657e-01 7.848611e-01 -7.795387e-03
3.400000e-01 7.712909e-01 7.788008e-01 -7.509930e-03
3.406250e-01 7.654690e-01 7.726929e-01 -7.223971e-03
3.412500e-01 7.596018e-01 7.665394e-01 -6.937650e-03
3.418750e-01 7.536910e-01 7.603421e-01 -6.651108e-03
3.425000e-01 7.477383e-01 7.541028e-01 -6.364482e-03
3.431250e-01 7.417455e-01 7.478234e-01 -6.077911e-03
3.437500e-01 7.357143e-01 7.415058e-01 -5.791530e-03
3.443750e-01 7.296464e-01 7.351518e-01 -5.505474e-03
3.450000e-01 7.235435e-01 7.287633e-01 -5.219878e-03
3.456250e-01 7.174073e-01 7.223422e-01 -4.934872e-03
3.462500e-01 7.112396e-01 7.158902e-01 -4.650590e-03
3.468750e-01 7.050421e-01 7.094092e-01 -4.367158e-03
3.475000e-01 6.988164e-01 7.029011e-01 -4.084706e-03
3.481250e-01 6.925643e-01 6.963677e-01 -3.803359e-03
3.487500e-01 6.862876e-01 6.898108e-01 -3.523241e-03
3.493750e-01 6.799878e-01 6.832323e-01 -3.244474e-03
3.500000e-01 6.736667e-01 6.766338e-01 -2.967179e-03
3.506250e-01 6.673259e-01 6.700174e-01 -2.691473e-03
3.512500e-01 6.609671e-01 6.633846e-01 -2.417473e-03
3.518750e-01 6.545920e-01 6.567373e-01 -2.145294e-03
3.525000e-01 6.482022e-01 6.500773e-01 -1.875045e-03
3.531250e-01 6.417994e-01 6.434062e-01 -1.606838e-03
3.537500e-01 6.353851e-01 6.367259e-01 -1.340780e-03
3.543750e-01 6.289611e-01 6.300380e-01 -1.076975e-03